LAMMPS Silicon/Germanium Simulation

1205        atoms

4 atom types

       0.0       10.86      xlo xhi
       0.0       10.86      ylo yhi
       0.0       217.2      zlo zhi

Masses

            1      28.0855
            2      28.0855
            3        72.64
            4        72.64

Atoms

1	1	9.84428	0.558889	0.0117467
2	1	5.10752	7.06536	0.288152
3	4	4.42339	9.3072	0.615106
4	1	1.39584	0.842951	0.704794
5	1	2.0717	9.47542	1.15514
6	1	4.58289	3.4711	1.33267
7	1	7.06372	3.2392	1.49753
8	1	7.86344	0.985541	1.60835
9	1	3.7568	5.68464	1.6755
10	1	1.44179	6.4055	1.84339
11	1	5.87647	10.3808	2.22321
12	1	2.80529	2.06723	2.28705
13	1	9.89371	8.95	2.33769
14	1	8.17232	7.15103	2.34923
15	1	8.3035	4.77685	2.9745
16	1	10.7165	5.08459	3.13875
17	1	1.28744	8.49152	3.25647
18	1	9.26412	0.166309	3.40957
19	1	6.67678	8.51957	3.54996
20	1	4.22849	0.630796	3.58128
21	1	1.18311	3.15051	3.67003
22	1	4.01388	5.70107	3.93189
23	1	2.70733	9.89775	4.71694
24	1	10.6549	1.58453	4.76347
25	1	0.0445027	6.97358	4.77078
26	1	8.03276	9.77789	4.97737
27	1	5.37565	7.19115	4.97767
28	1	7.44772	3.84939	5.00744
29	1	5.64279	1.98733	5.05611
30	1	2.61684	4.32481	5.11257
31	1	1.23293	0.26918	6.13488
32	1	9.44394	8.31339	6.15775
33	1	9.3106	2.9223	6.20525
34	1	3.93357	8.52452	6.23526
35	1	6.62023	5.68252	6.29342
36	1	6.71857	0.299042	6.32181
37	1	1.24484	5.71873	6.35198
38	1	3.98481	2.98833	6.3981
39	1	10.7567	9.74515	7.52817
40	1	8.05554	7.02758	7.5746
41	1	10.6773	4.31404	7.57888
42	1	2.55979	1.58469	7.60159
43	1	2.60975	7.12745	7.62007
44	1	5.31122	9.81377	7.62603
45	1	8.05834	1.61311	7.7005
46	1	5.29609	4.37951	7.736
47	1	6.68202	8.40722	8.93831
48	1	1.20401	2.97127	8.94602
49	1	9.42555	0.21841	8.96479
50	1	1.2216	8.43786	8.96596
51	1	9.37335	5.6845	8.96874
52	1	3.93078	0.271477	8.98523
53	1	3.9185	5.75262	9.01143
54	1	6.67506	2.98232	9.02397
55	1	10.7288	7.05947	10.3124
56	1	2.55879	4.34321	10.3146
57	1	8.02869	9.75725	10.3169
58	1	10.7347	1.61288	10.3279
59	1	5.31449	7.08506	10.3351
60	1	2.57633	9.77696	10.3369
61	1	5.29108	1.62356	10.3431
62	1	8.02602	4.35146	10.3535
63	1	6.6618	0.257118	11.6762
64	1	3.92448	2.99107	11.6782
65	1	1.21432	5.7018	11.6798
66	1	9.3731	8.40473	11.6839
67	1	9.37791	2.97468	11.6868
68	1	3.93862	8.42358	11.6882
69	1	6.65365	5.70848	11.6896
70	1	1.22392	0.268174	11.6946
71	1	5.28677	4.34668	13.0332
72	1	2.57477	7.05977	13.0339
73	1	8.00768	1.62376	13.0359
74	1	10.7229	4.3435	13.0403
75	1	5.29568	9.77687	13.0415
76	1	10.7206	9.77035	13.0415
77	1	2.57601	1.63266	13.0421
78	1	8.00936	7.06045	13.045
79	1	6.64384	2.98382	14.3864
80	1	3.92799	5.70064	14.3911
81	1	3.93187	0.271626	14.3931
82	1	1.21639	8.41272	14.3944
83	1	9.35989	0.26716	14.3949
84	1	9.36156	5.69686	14.3958
85	1	6.6464	8.41555	14.3963
86	1	1.21546	2.98573	14.3967
87	1	7.99613	4.34275	15.7462
88	1	2.56975	9.77561	15.7468
89	1	5.28424	1.63188	15.7469
90	1	5.28242	7.05978	15.747
91	1	10.7128	1.62976	15.748
92	1	2.56968	4.3461	15.7489
93	1	10.714	7.05871	15.7495
94	1	7.99867	9.77537	15.7505
95	1	6.6367	5.69958	17.1013
96	1	1.20734	0.270103	17.1018
97	1	9.35069	2.98467	17.1018
98	1	3.92205	8.41514	17.1022
99	1	3.92297	2.98585	17.1024
100	1	6.63653	0.271007	17.1026
101	1	9.35249	8.41421	17.1031
102	1	1.20777	5.6994	17.1037
103	1	2.56051	1.6308	18.4563
104	1	10.7054	9.7759	18.4564
105	1	10.7047	4.3447	18.4566
106	1	7.99007	7.06004	18.4566
107	1	5.27545	4.34578	18.4569
108	1	5.27538	9.77563	18.4569
109	1	2.56073	7.06065	18.4571
110	1	7.99	1.63043	18.4571
111	1	1.19888	8.41578	19.8106
112	1	9.34377	0.270482	19.8109
113	1	6.62939	8.41561	19.811
114	1	1.19863	2.98542	19.8111
115	1	3.91377	0.270555	19.8111
116	1	9.34367	5.70013	19.8111
117	1	3.91413	5.70061	19.8116
118	1	6.62859	2.98549	19.8119
119	1	10.697	7.06083	21.165
120	1	5.2676	7.06087	21.1654
121	1	10.697	1.63038	21.1654
122	1	7.98211	9.77638	21.1654
123	1	5.26663	1.63112	21.1656
124	1	2.55214	9.77618	21.1658
125	1	7.98216	4.3457	21.1658
126	1	2.55179	4.3462	21.1659
127	1	1.19032	5.7011	22.5198
128	1	9.33583	8.41627	22.5198
129	1	6.62141	5.70111	22.5199
130	1	1.19076	0.271371	22.5201
131	1	3.90586	8.41574	22.5201
132	1	6.6205	0.27134	22.5201
133	1	3.90596	2.98636	22.5202
134	1	9.33601	2.98579	22.5202
135	1	7.97416	7.0616	23.874
136	1	5.25898	4.347	23.8741
137	1	2.54322	7.06143	23.8741
138	1	2.544	1.63148	23.8742
139	1	10.6887	9.77688	23.8743
140	1	7.97364	1.63207	23.8744
141	1	10.6887	4.34676	23.8744
142	1	5.25887	9.77642	23.8745
143	1	3.89754	5.70184	25.2283
144	1	9.32731	0.271453	25.2283
145	1	1.18206	8.41698	25.2284
146	1	6.61238	8.4164	25.2285
147	1	1.18249	2.98632	25.2288
148	1	9.32731	5.70188	25.2288
149	1	6.6123	2.98733	25.229
150	1	3.89764	0.27147	25.2293
151	1	5.25052	7.06233	26.5827
152	1	5.2508	1.63254	26.5829
153	1	7.96583	4.34758	26.5829
154	1	10.6805	1.63188	26.5829
155	1	2.53556	4.34714	26.5831
156	1	7.96517	9.77732	26.5831
157	1	2.53565	9.7774	26.5833
158	1	10.6801	7.06272	26.5833
159	1	9.31905	2.98666	27.9371
160	1	3.88922	8.41715	27.9372
161	1	1.17394	5.70229	27.9373
162	1	6.60404	0.272289	27.9373
163	1	6.60359	5.70163	27.9374
164	1	3.88921	2.98717	27.9375
165	1	1.17414	0.272251	27.9378
166	1	9.31859	8.4176	27.9381
167	1	10.6717	4.34736	29.2911
168	1	2.527	7.06264	29.2912
169	1	7.95706	1.63282	29.2917
170	1	2.52727	1.63338	29.2918
171	1	5.24237	4.34751	29.292
172	1	7.95671	7.06285	29.2921
173	1	10.6722	9.77815	29.2921
174	1	5.24209	9.77802	29.2922
175	1	9.31072	5.70242	30.646
176	1	1.16581	8.41773	30.6461
177	1	3.88045	5.70299	30.6461
178	1	1.16563	2.98772	30.6463
179	1	6.5958	8.41819	30.6464
180	1	9.31038	0.272684	30.6465
181	1	6.5962	2.98777	30.6466
182	1	3.8808	0.273423	30.6468
183	1	5.23335	7.0637	32.0003
184	1	2.51859	9.77871	32.0005
185	1	10.6639	1.63317	32.0007
186	1	10.6642	7.0632	32.0007
187	1	2.51865	4.34814	32.001
188	1	5.23401	1.63363	32.001
189	1	7.9491	4.3487	32.0011
190	1	7.94865	9.77808	32.0011
191	1	3.8724	8.41891	33.3545
192	1	6.58697	5.70343	33.3548
193	1	1.15756	0.273428	33.3549
194	1	1.15775	5.7035	33.3549
195	1	9.30259	2.9889	33.3553
196	1	9.30265	8.41834	33.3553
197	1	3.87231	2.98804	33.3554
198	1	6.58763	0.27378	33.3555
199	1	2.51101	7.0639	34.709
200	1	7.94092	7.06367	34.7091
201	1	10.6563	4.34907	34.7094
202	1	5.22563	9.77924	34.7095
203	1	7.94116	1.63411	34.7096
204	1	5.22547	4.3489	34.7097
205	1	2.51039	1.63416	34.7099
206	1	10.6559	9.77871	34.7099
207	1	6.57971	8.41898	36.0638
208	1	6.57954	2.98914	36.0639
209	1	1.14991	8.41882	36.064
210	1	3.86438	0.274495	36.0641
211	1	9.29505	5.70355	36.0641
212	1	3.86423	5.70398	36.0642
213	1	9.29438	0.273882	36.0643
214	1	1.1494	2.98874	36.0647
215	1	2.50296	9.7793	37.418
216	1	5.21853	1.63391	37.4182
217	1	10.6482	7.06409	37.4184
218	1	5.21794	7.0639	37.4185
219	1	7.93328	4.34919	37.4185
220	1	10.6479	1.6342	37.4185
221	1	7.93287	9.77891	37.419
222	1	2.5031	4.34933	37.4192
223	1	9.28658	2.98938	38.7729
224	1	6.57182	5.70408	38.7729
225	1	3.857	8.41949	38.773
226	1	3.85698	2.98899	38.7731
227	1	6.57201	0.274368	38.7731
228	1	9.28691	8.41922	38.7731
229	1	1.14184	0.27434	38.7732
230	1	1.14178	5.70413	38.7733
231	1	2.49476	7.06517	40.1269
232	1	7.92466	7.06504	40.1271
233	1	5.21025	4.34972	40.1272
234	1	10.64	4.34965	40.1272
235	1	5.21006	9.7802	40.1273
236	1	7.92531	1.63482	40.1275
237	1	10.6397	9.77986	40.1275
238	1	2.49514	1.63439	40.1278
239	1	9.27888	5.70494	41.4811
240	1	3.84792	5.70468	41.4814
241	1	6.5634	8.41962	41.4816
242	1	6.56369	2.98989	41.4817
243	1	1.13379	2.98959	41.4818
244	1	1.13345	8.41976	41.4819
245	1	9.27885	0.274897	41.4819
246	1	3.84884	0.274878	41.4822
247	1	5.20149	7.06515	42.8357
248	1	7.9165	9.78066	42.8357
249	1	10.6318	7.06513	42.8358
250	1	7.91726	4.3504	42.8359
251	1	2.48645	4.35031	42.8361
252	1	10.6319	1.63524	42.8363
253	1	5.2018	1.63592	42.8364
254	1	2.48655	9.78055	42.8364
255	1	9.27023	8.42031	44.1898
256	1	3.84013	8.41992	44.1902
257	1	3.84028	2.99042	44.1904
258	1	6.55527	5.70508	44.1904
259	1	1.12523	5.70544	44.1906
260	1	6.55512	0.275284	44.1906
261	1	1.12564	0.275281	44.1907
262	1	9.27046	2.99061	44.1907
263	1	7.90861	7.06534	45.5443
264	1	10.6235	9.78056	45.5446
265	1	2.47884	7.06585	45.5448
266	1	7.90863	1.6361	45.5448
267	1	5.19369	4.35082	45.5449
268	1	10.6237	4.35096	45.5449
269	1	5.19386	9.77994	45.545
270	1	2.47869	1.63601	45.5451
271	1	1.11721	8.42056	46.8992
272	1	3.83248	5.70614	46.8992
273	1	6.54774	8.42021	46.8992
274	1	3.83255	0.275733	46.8993
275	1	9.26204	5.70559	46.8993
276	1	9.26247	0.27597	46.8994
277	1	1.11731	2.99116	46.8996
278	1	6.54752	2.99132	46.8998
279	1	7.90098	9.78112	48.2535
280	1	10.6155	7.06557	48.2537
281	1	5.18589	1.63613	48.2539
282	1	5.18578	7.06613	48.2539
283	1	2.47094	4.35097	48.254
284	1	2.47077	9.78193	48.254
285	1	7.90055	4.35089	48.254
286	1	10.6156	1.63651	48.2544
287	1	6.53976	0.276075	49.6076
288	1	9.25443	8.4209	49.6079
289	1	6.5396	5.70621	49.6083
290	1	3.8245	2.99101	49.6084
291	1	3.82443	8.42141	49.6084
292	1	1.10904	5.70593	49.6085
293	1	9.25432	2.9916	49.6085
294	1	1.10954	0.276428	49.6087
295	1	2.46212	7.06644	50.9623
296	1	10.6077	9.78164	50.9623
297	1	7.89266	1.63676	50.9625
298	1	5.17771	9.78202	50.9626
299	1	7.89254	7.06664	50.9626
300	1	5.17745	4.35213	50.9628
301	1	10.6083	4.35137	50.9628
302	1	2.46283	1.63665	50.9632
303	1	1.10122	8.42173	52.3167
304	1	6.53131	2.99142	52.3167
305	1	9.24661	0.27731	52.3168
306	1	9.24689	5.70651	52.317
307	1	6.53135	8.42169	52.3171
308	1	1.1016	2.99197	52.3174
309	1	3.81622	5.70632	52.3174
310	1	3.81652	0.276694	52.3175
311	1	10.6	7.0669	53.6712
312	1	5.1697	7.06707	53.6713
313	1	7.88491	4.35205	53.6714
314	1	7.88519	9.78231	53.6714
315	1	2.45503	4.35191	53.6716
316	1	2.45451	9.78203	53.6716
317	1	10.5998	1.63716	53.6718
318	1	5.16991	1.6373	53.6721
319	1	9.2392	8.42179	55.0255
320	1	6.52352	5.7075	55.0256
321	1	9.23855	2.99249	55.026
322	1	1.0938	0.276687	55.0261
323	1	1.09362	5.70723	55.0261
324	1	3.80877	8.42204	55.0261
325	1	3.80877	2.99223	55.0265
326	1	6.52399	0.277395	55.0265
327	1	2.4473	7.0676	56.3804
328	1	10.5917	9.78235	56.3805
329	1	5.16201	4.3532	56.3806
330	1	7.8768	1.63797	56.3806
331	1	7.87723	7.06785	56.3806
332	1	2.44682	1.63777	56.3807
333	1	5.16187	9.7828	56.3808
334	1	10.5921	4.35296	56.3808
335	1	6.51531	2.99296	57.7347
336	1	3.8002	0.278401	57.7348
337	1	1.08554	2.99267	57.735
338	1	9.23035	5.70796	57.735
339	1	3.80101	5.70821	57.7351
340	1	9.23031	0.27769	57.7351
341	1	6.51559	8.4227	57.7352
342	1	1.08583	8.42278	57.7353
343	1	5.15344	1.63859	59.0892
344	1	7.86886	4.35336	59.0893
345	1	7.86861	9.78317	59.0894
346	1	2.43882	9.78377	59.0896
347	1	10.5837	1.63806	59.0896
348	1	10.5838	7.06809	59.0896
349	1	2.4388	4.35337	59.0897
350	1	5.15402	7.06821	59.0897
351	1	9.22306	2.99371	60.4433
352	1	9.22243	8.42343	60.4436
353	1	6.50736	0.278807	60.4438
354	1	3.79282	8.4234	60.444
355	1	6.5079	5.70869	60.4441
356	1	3.79263	2.99315	60.4444
357	1	1.07791	5.70874	60.4445
358	1	1.07761	0.278877	60.4448
359	1	7.86095	1.6396	61.798
360	1	10.5755	9.78416	61.7982
361	1	5.14554	4.35471	61.7985
362	1	5.14631	9.78399	61.7985
363	1	10.5759	4.35411	61.7986
364	1	7.86137	7.06902	61.7987
365	1	2.43096	1.63889	61.7988
366	1	2.43052	7.06948	61.799
367	1	6.49908	2.99436	63.1525
368	1	3.78463	0.279137	63.1526
369	1	9.21423	0.279761	63.1527
370	1	1.06932	8.42445	63.153
371	1	6.4998	8.42402	63.1531
372	1	3.78389	5.70955	63.1533
373	1	9.21455	5.70851	63.1534
374	1	1.06998	2.99398	63.1537
375	1	5.13806	7.06943	64.5071
376	1	7.85294	4.3542	64.5071
377	1	5.138	1.63983	64.5072
378	1	2.4232	9.78426	64.5072
379	1	2.42301	4.35461	64.5075
380	1	7.85305	9.78481	64.5075
381	1	10.5679	7.069	64.5076
382	1	10.5681	1.63952	64.5077
383	1	6.49184	5.7095	65.8615
384	1	3.77688	8.42463	65.8616
385	1	1.06193	5.70972	65.8617
386	1	9.20657	2.99446	65.8617
387	1	1.06221	0.279912	65.8618
388	1	9.20692	8.42481	65.8618
389	1	6.49165	0.279666	65.8619
390	1	3.77744	2.99477	65.862
391	1	2.41598	7.07006	67.2159
392	1	10.5602	4.35505	67.2161
393	1	10.5612	9.78497	67.2161
394	1	2.4158	1.64059	67.2162
395	1	7.84492	7.07041	67.2162
396	1	7.84537	1.63955	67.2163
397	1	5.13026	9.78529	67.2164
398	1	5.13028	4.35507	67.2168
399	1	9.19911	5.71046	68.5703
400	1	6.48449	2.99525	68.5705
401	1	3.76902	0.28046	68.5706
402	1	1.05451	8.4249	68.5706
403	1	6.48413	8.42542	68.5706
404	1	1.0539	2.99519	68.5707
405	1	3.76961	5.70991	68.5708
406	1	9.19953	0.279618	68.5711
407	1	10.5529	7.07053	69.9246
408	1	2.40805	4.35566	69.9249
409	1	7.83799	4.35562	69.9249
410	1	5.12262	1.64046	69.9251
411	1	2.40755	9.78587	69.9252
412	1	7.83734	9.78523	69.9253
413	1	5.12311	7.07078	69.9255
414	1	10.5523	1.64056	69.9257
415	1	1.04689	5.71101	71.2793
416	1	6.4769	5.71061	71.2793
417	1	3.76116	8.42571	71.2795
418	1	6.47627	0.280476	71.2795
419	1	9.19128	2.99582	71.2796
420	1	9.19173	8.42572	71.2796
421	1	3.76112	2.99568	71.2797
422	1	1.04633	0.280676	71.2801
423	1	10.5454	4.35632	72.6336
424	1	5.11511	4.35608	72.6337
425	1	5.11529	9.78546	72.6337
426	1	2.39945	7.07124	72.6338
427	1	7.83034	7.07088	72.634
428	1	7.83045	1.64068	72.6341
429	1	10.5447	9.78598	72.6342
430	1	2.39966	1.64062	72.6343
431	1	3.75363	5.71103	73.9879
432	1	1.03839	2.99576	73.9881
433	1	6.46884	2.99618	73.9882
434	1	3.75384	0.280399	73.9886
435	1	1.03859	8.42633	73.9886
436	1	9.18347	0.280745	73.9886
437	1	6.46866	8.42565	73.9886
438	1	9.18385	5.71145	73.9888
439	1	5.10693	1.64178	75.3422
440	1	2.39179	9.78633	75.3426
441	1	2.39204	4.35635	75.3427
442	1	5.10665	7.07142	75.3428
443	1	7.82169	4.3568	75.3428
444	1	10.5371	1.64115	75.3428
445	1	7.82135	9.7865	75.3428
446	1	10.537	7.07144	75.3433
447	1	6.46018	0.281672	76.6971
448	1	3.74552	2.99642	76.6973
449	1	1.03032	5.71179	76.6973
450	1	1.03048	0.28109	76.6974
451	1	3.74506	8.42597	76.6974
452	1	6.46019	5.71131	76.6974
453	1	9.17511	8.42651	76.6974
454	1	9.17532	2.99655	76.6977
455	1	5.09852	9.78653	78.051
456	1	7.81391	7.07173	78.0517
457	1	10.529	4.35685	78.0518
458	1	2.3832	7.07183	78.0519
459	1	7.81345	1.6424	78.0521
460	1	10.5287	9.78681	78.0521
461	1	2.38418	1.64168	78.0522
462	1	5.09814	4.35689	78.0524
463	1	6.45231	8.42714	79.4057
464	1	3.73776	0.281426	79.4059
465	1	9.16744	0.282384	79.4061
466	1	9.16772	5.71177	79.4061
467	1	3.73657	5.71193	79.4062
468	1	1.02218	8.42671	79.4063
469	1	1.02307	2.99719	79.4066
470	1	6.45197	2.99713	79.4066
471	1	5.09096	7.07254	80.7603
472	1	5.09064	1.64219	80.7604
473	1	10.5212	7.07174	80.7605
474	1	10.5214	1.64223	80.7606
475	1	7.80583	9.78758	80.7606
476	1	7.80565	4.35705	80.761
477	1	2.37591	9.7871	80.7612
478	1	2.37561	4.35758	80.7615
479	1	9.15978	8.42722	82.1146
480	1	6.44471	5.71257	82.1148
481	1	6.44434	0.28262	82.115
482	1	9.15939	2.9968	82.115
483	1	3.72942	8.42675	82.1152
484	1	3.72948	2.99761	82.1153
485	1	1.01393	5.71219	82.1153
486	1	1.01447	0.282436	82.1155
487	1	7.79807	1.64293	83.4691
488	1	5.08303	4.35784	83.4694
489	1	2.3678	1.64289	83.4695
490	1	2.36803	7.07217	83.4695
491	1	10.5127	4.35741	83.4696
492	1	5.0831	9.78758	83.4697
493	1	7.79819	7.07281	83.4697
494	1	10.5131	9.7876	83.4697
495	1	9.15137	0.282826	84.8237
496	1	1.00677	2.9978	84.8239
497	1	3.72213	0.282856	84.8239
498	1	6.43687	2.99798	84.8239
499	1	6.43684	8.42744	84.8239
500	1	1.00669	8.42753	84.8241
501	1	3.72211	5.71273	84.8243
502	1	9.1517	5.71239	84.8244
503	1	2.3601	4.35783	86.178
504	1	2.36042	9.78781	86.178
505	1	7.78994	9.7881	86.1782
506	1	5.07479	1.64344	86.1784
507	1	5.07522	7.07334	86.1784
508	1	10.505	1.64331	86.1785
509	1	7.78993	4.35792	86.1787
510	1	10.5049	7.07253	86.1788
511	1	0.998714	0.283183	87.5321
512	1	9.14356	8.42787	87.5326
513	1	3.7138	2.99816	87.5327
514	1	0.999521	5.7128	87.5328
515	1	6.42868	0.283081	87.5328
516	1	6.42868	5.71289	87.5329
517	1	3.71383	8.42847	87.5332
518	1	9.14397	2.99815	87.5332
519	1	2.35244	1.6435	88.8867
520	1	10.4969	9.78856	88.8867
521	1	5.06728	9.78872	88.8872
522	1	10.4976	4.35848	88.8872
523	1	2.35207	7.07364	88.8873
524	1	5.06723	4.35836	88.8874
525	1	7.78222	1.64336	88.8874
526	1	7.78213	7.07327	88.8877
527	2	0.99013	8.42819	90.2413
528	2	3.70575	0.283395	90.2418
529	2	9.13623	0.283211	90.2418
530	2	6.42062	8.4284	90.2418
531	2	9.13595	5.71352	90.2418
532	2	6.42074	2.99867	90.2419
533	2	0.991676	2.99887	90.242
534	2	3.70611	5.71401	90.2422
535	2	2.34313	9.78853	91.5958
536	2	10.4895	1.64366	91.5962
537	2	10.4891	7.07432	91.5964
538	2	7.77451	4.35915	91.5965
539	2	7.77426	9.7891	91.5965
540	2	2.34495	4.35936	91.5966
541	2	5.059	7.07446	91.5967
542	2	5.0591	1.64403	91.5969
543	2	0.982943	5.7143	92.9501
544	2	9.12827	2.9989	92.9502
545	2	3.69736	8.42962	92.9508
546	2	6.41295	5.71443	92.9508
547	2	0.983569	0.284302	92.9509
548	2	6.41328	0.284064	92.9511
549	2	9.12785	8.42959	92.9513
550	2	3.69859	2.9992	92.9515
551	2	10.4818	4.35928	94.3042
552	2	7.76758	1.64418	94.3049
553	2	2.33542	7.0758	94.305
554	2	5.05085	9.7901	94.305
555	2	10.4818	9.78969	94.3055
556	2	7.76592	7.0749	94.3057
557	2	5.05229	4.35942	94.3058
558	2	2.33692	1.64451	94.3059
559	2	9.12087	5.71456	95.6585
560	2	3.68992	5.71597	95.6587
561	2	0.97517	3.00014	95.6593
562	2	6.40638	2.99879	95.6595
563	2	6.40449	8.43035	95.6598
564	2	9.12114	0.285213	95.6603
565	2	0.975888	8.43111	95.6607
566	2	3.68982	0.284457	95.6611
567	2	2.32732	4.36208	97.0124
568	2	10.4742	7.07396	97.0133
569	2	7.76118	4.35846	97.0135
570	2	7.75865	9.79017	97.0136
571	2	5.04517	1.64383	97.0139
572	2	5.04203	7.07705	97.0139
573	2	10.4745	1.64517	97.0153
574	2	2.32819	9.79111	97.0178
575	2	6.3982	5.71564	98.3629
576	2	3.68268	3.00207	98.3632
577	2	9.11121	8.42817	98.3657
578	2	6.3991	0.283983	98.37
579	2	0.966492	5.715	98.3704
580	2	9.11481	2.99954	98.3715
581	2	3.68195	8.43122	98.3725
582	2	0.966754	0.286945	98.3734
583	2	5.0367	4.36088	99.7142
584	2	7.75293	7.07144	99.7191
585	2	10.4606	9.78811	99.7213
586	2	2.32053	1.65511	99.7221
587	2	7.75278	1.64452	99.7257
588	2	2.31973	7.07454	99.7262
589	2	5.03876	9.78967	99.7275
590	2	10.4668	4.36054	99.7288
591	2	3.6828	0.303333	101.071
592	2	6.39251	3.00957	101.071
593	2	3.68093	5.7124	101.073
594	2	0.944906	8.42329	101.076
595	2	6.39165	8.41888	101.078
596	2	9.10081	0.277487	101.081
597	2	9.09655	5.70956	101.081
598	2	0.969164	3.01092	101.088
599	2	2.3039	9.8064	102.397
600	2	10.4557	1.64823	102.425
601	2	5.03667	1.66507	102.432
602	2	5.05176	7.04286	102.435
603	2	7.73684	9.78051	102.438
604	2	10.4498	7.06044	102.44
605	2	7.72392	4.37187	102.443
606	2	2.32698	4.37589	102.448
607	2	3.66575	8.4333	103.703
608	2	9.07803	2.9981	103.762
609	2	0.965853	0.300264	103.777
610	2	6.38301	0.295345	103.784
611	2	9.05042	8.37704	103.793
612	2	3.71922	3.05131	103.801
613	2	0.959664	5.72466	103.812
614	2	6.37398	5.69001	103.859
615	2	4.98646	9.75536	105.061
616	2	10.432	9.74378	105.069
617	2	2.36013	1.69739	105.107
618	2	2.34931	7.14599	105.11
619	2	10.424	4.32034	105.116
620	2	7.72461	1.69174	105.142
621	2	7.71398	7.06415	105.242
622	2	5.03291	4.33568	105.287
623	2	9.08237	0.255841	106.4
624	2	3.71143	0.285532	106.423
625	2	0.983063	8.50617	106.487
626	2	0.959726	3.00101	106.495
627	2	6.21796	8.40862	106.522
628	2	3.70123	5.83175	106.54
629	2	9.11285	5.65637	106.549
630	2	6.39681	2.94981	106.685
631	2	1.76319	4.97075	107.554
632	2	0.0410654	1.12742	107.615
633	2	7.35985	10.1202	107.664
634	2	0.0738743	6.65189	107.667
635	2	1.82679	10.3513	107.854
636	2	5.56983	1.01718	108.015
637	2	7.73634	4.4169	108.034
638	2	4.92036	7.13592	108.13
639	3	8.50311	8.37641	109.064
640	3	6.96801	6.41416	109.203
641	3	3.53665	0.564579	109.445
642	3	9.94377	1.40818	109.743
643	3	2.39361	5.1516	109.814
644	3	1.5402	9.02177	109.933
645	3	8.20761	3.03084	109.963
646	3	10.6005	7.26722	110.052
647	3	3.55958	7.55499	110.226
648	3	2.98183	2.79736	110.361
649	3	6.25579	1.69474	110.407
650	3	8.94232	10.2191	110.647
651	3	4.22605	9.88819	111.241
652	3	0.781479	2.25721	111.26
653	3	0.339919	4.91918	111.288
654	3	7.29384	6.13924	111.639
655	3	6.70397	10.4634	111.693
656	3	1.15494	10.6451	111.75
657	3	4.75007	2.91093	111.981
658	3	8.86898	4.23481	111.986
659	3	9.48305	7.36864	112.544
660	3	3.63937	6.7738	112.618
661	3	5.39259	5.12704	112.744
662	3	10.0055	9.79338	112.896
663	3	6.96169	8.27922	113.252
664	3	1.59906	5.52477	113.276
665	3	2.94614	10.4727	113.434
666	3	8.19735	0.47665	113.629
667	3	3.7139	1.88134	113.954
668	3	8.81635	2.88232	114.161
669	3	4.40108	8.56733	114.262
670	3	10.4391	6.17514	114.67
671	3	0.766745	10.0458	114.766
672	3	2.2804	3.73124	114.838
673	3	5.98548	5.17716	115.088
674	3	6.54036	10.1747	115.089
675	3	7.94143	6.76129	115.163
676	3	5.37977	1.39927	115.619
677	3	10.7667	3.59588	115.714
678	3	6.98546	3.18187	115.824
679	3	0.835273	7.89536	115.963
680	3	3.25117	7.41035	116.16
681	3	3.79139	5.03609	116.276
682	3	0.152597	1.04335	116.308
683	3	7.4202	9.83294	117.31
684	3	8.19885	7.59459	117.436
685	3	4.47831	0.98422	117.817
686	3	2.05137	0.863495	117.851
687	3	9.21438	0.565779	117.978
688	3	10.6257	8.14596	118.221
689	3	7.07336	3.76468	118.239
690	3	10.6986	4.05174	118.321
691	3	3.88324	8.12338	118.393
692	3	3.72824	4.24927	118.653
693	3	5.47783	9.859	118.717
694	3	1.91342	9.44527	118.74
695	3	6.83387	6.10961	118.967
696	3	1.771	2.90597	119.171
697	3	8.91174	2.6721	119.205
698	3	5.34204	2.57186	119.429
699	3	10.7396	6.15332	119.635
700	3	10.0102	10.1588	119.928
701	3	4.28597	6.22978	119.943
702	3	8.50231	6.65871	120.688
703	3	1.63381	10.224	121.035
704	3	6.02139	9.91529	121.065
705	3	1.85972	6.21406	121.099
706	3	8.30991	9.03324	121.174
707	3	1.61804	2.43493	121.546
708	3	8.50711	2.28911	121.655
709	3	5.98643	1.48119	121.816
710	3	10.5721	0.894946	122.032
711	3	3.41008	0.867194	122.162
712	3	2.1865	8.29108	122.284
713	3	5.17862	6.16694	122.342
714	3	4.60588	8.50896	122.604
715	3	7.55289	6.00904	122.811
716	3	1.6989	4.46668	122.82
717	3	8.579	3.96425	123.488
718	3	8.57923	9.52826	123.512
719	3	3.9068	4.69495	123.77
720	3	5.13257	2.65646	124.011
721	3	6.66277	10.8248	124.023
722	3	10.6482	10.632	124.282
723	3	1.05895	8.4703	124.413
724	3	10.7197	4.64159	124.457
725	3	8.11282	7.51462	124.665
726	3	3.70257	0.638996	124.717
727	3	4.82464	9.25703	124.931
728	3	7.10786	3.3561	125.327
729	3	10.3101	6.90694	125.337
730	3	2.93962	7.77563	125.824
731	3	7.56909	1.13773	125.959
732	3	3.70816	5.4056	126.075
733	3	10.028	1.11888	126.315
734	3	6.44596	8.06517	126.446
735	3	0.13835	3.41413	126.549
736	3	2.56662	3.4033	127.087
737	3	3.599	1.07999	127.144
738	3	5.60473	6.06759	127.548
739	3	7.29688	4.32074	127.641
740	3	10.3035	7.24088	127.797
741	3	6.03534	0.834223	127.816
742	3	1.80423	8.03065	127.924
743	3	9.66882	4.82478	128.253
744	3	6.79666	9.47718	128.462
745	3	2.17794	10.384	128.547
746	3	10.7589	0.390518	128.57
747	4	9.13009	9.09108	129.183
748	4	6.59016	2.62246	129.318
749	4	2.55723	3.88546	129.416
750	4	2.35519	6.34408	129.599
751	4	4.73576	6.72879	129.784
752	4	0.604187	2.47991	129.999
753	4	5.25902	9.04307	130.328
754	4	4.66531	3.3236	130.573
755	4	9.66988	4.05005	130.734
756	4	3.06257	10.3578	130.863
757	4	9.61617	0.174933	130.937
758	4	8.19348	2.13762	131.171
759	4	9.48428	7.64822	131.254
760	4	0.995571	6.88136	131.516
761	4	5.50478	5.40449	131.723
762	4	8.02795	5.69857	131.796
763	4	1.11327	0.898008	131.858
764	4	4.14976	1.44249	132.054
765	4	0.608162	4.63715	132.488
766	4	2.49308	8.54521	132.488
767	4	6.26005	9.16912	132.609
768	4	4.57309	7.37711	133.07
769	4	2.32874	2.86362	133.088
770	4	8.58531	8.72276	133.294
771	4	10.2937	10.5284	133.501
772	4	7.50762	1.9245	133.587
773	4	5.6465	0.374108	133.661
774	4	4.3625	4.3914	133.874
775	4	8.22077	5.72945	134.275
776	4	1.34774	9.3758	134.51
777	4	10.5681	5.22675	134.673
778	4	6.6748	3.86567	134.73
779	4	9.30766	1.18925	135.114
780	4	3.58049	6.57447	135.256
781	4	2.01081	2.38245	135.449
782	4	1.10363	7.15821	135.569
783	4	7.79101	7.86547	135.642
784	4	4.85238	10.4602	135.891
785	4	2.46565	0.078381	136.103
786	4	10.5942	3.23626	136.191
787	4	5.34611	8.0108	136.293
788	4	3.47111	4.24724	136.397
789	4	8.43437	10.3168	136.692
790	4	6.79069	3.12702	137.07
791	4	6.35499	0.688681	137.47
792	4	8.88182	6.45918	137.559
793	4	0.164722	7.56303	137.815
794	4	1.49247	4.23441	137.877
795	4	8.8981	3.93299	137.955
796	4	5.08745	4.36452	138.217
797	4	1.51613	0.131173	138.412
798	4	10.1417	9.84459	138.415
799	4	5.42216	6.862	138.504
800	4	1.60113	6.29827	139.349
801	4	1.90457	2.42168	139.404
802	4	7.63567	7.18815	139.485
803	4	5.08968	0.446619	139.636
804	4	3.62953	7.56623	139.94
805	4	4.31237	2.77706	139.96
806	4	2.98279	9.9244	140.089
807	4	8.5556	9.35241	140.304
808	4	8.98346	3.30204	140.518
809	4	8.10169	5.55576	141.182
810	4	0.506857	3.13435	141.243
811	4	6.70095	10.642	141.306
812	4	1.06603	5.51857	141.602
813	4	7.51446	1.92411	142.17
814	4	5.28563	3.15781	142.205
815	4	1.41768	10.105	142.207
816	4	9.98412	8.99554	142.227
817	4	4.48995	7.20876	142.228
818	4	9.93482	6.55278	142.375
819	4	6.13306	5.41933	142.577
820	4	1.32661	1.61368	142.959
821	4	5.44078	9.39564	143.103
822	4	2.52992	6.40556	143.413
823	4	3.52342	2.414	143.752
824	4	1.62049	8.55369	144.246
825	4	8.60458	1.26308	144.382
826	4	8.93119	9.60726	144.407
827	4	4.34821	0.242283	144.652
828	4	9.5924	6.03183	144.686
829	4	7.12651	5.92371	144.754
830	4	6.8755	8.37111	144.856
831	4	2.53905	4.45203	144.939
832	4	0.00263056	1.96249	144.964
833	4	10.5312	8.09447	145.686
834	4	0.100862	4.27702	145.719
835	4	2.65161	9.9653	145.944
836	4	7.401	2.22548	146.291
837	4	5.78718	0.481389	146.594
838	4	6.30003	4.53274	146.604
839	4	1.25937	0.948684	146.855
840	4	3.80552	4.56299	146.974
841	4	6.24919	8.97767	147.11
842	4	3.85332	8.71909	147.644
843	4	0.426324	6.92867	147.847
844	4	9.88489	4.78589	148.091
845	4	2.88818	2.54821	148.128
846	4	2.92968	6.49742	148.161
847	4	8.88447	2.35184	148.262
848	4	7.46335	5.45029	148.598
849	4	4.75519	1.12661	148.627
850	4	10.8368	0.835812	149.108
851	4	6.99712	7.8184	149.166
852	4	3.76651	10.0091	149.785
853	4	6.88184	1.75824	149.902
854	4	0.151314	8.04923	150.028
855	4	1.37729	2.56838	150.156
856	4	10.7995	4.46603	150.367
857	4	1.42499	10.049	150.475
858	4	8.77087	8.86832	150.519
859	4	3.52123	6.1145	150.587
860	4	6.9498	4.11365	150.595
861	4	5.03011	8.07023	150.679
862	4	8.88967	0.517606	150.759
863	4	1.20922	6.28215	151.374
864	4	5.42718	0.202105	151.503
865	4	8.93377	4.20981	151.947
866	4	5.0009	4.62232	151.951
867	4	1.98674	1.86192	152.422
868	4	4.35671	2.24001	152.539
869	4	8.37527	8.5386	152.875
870	4	1.36335	10.3673	152.978
871	4	5.8432	8.74554	152.982
872	4	9.14261	1.90289	153.052
873	4	9.0239	6.23256	153.493
874	4	0.536007	5.63802	153.665
875	4	9.85465	10.3817	153.729
876	4	0.4415	3.08127	153.866
877	4	5.39244	6.25518	153.879
878	4	5.16455	1.55543	154.678
879	4	4.76283	9.96821	154.905
880	4	7.57688	1.97135	155.017
881	4	7.40376	6.05928	155.277
882	4	2.19103	9.35622	155.398
883	4	1.72194	6.80351	155.456
884	4	3.79374	5.58831	155.631
885	4	0.192337	2.12247	156.138
886	4	10.5286	10.2904	156.156
887	4	3.93755	3.06189	156.158
888	4	7.69307	3.97793	156.359
889	4	6.41426	9.73115	156.749
890	4	8.30926	0.434662	156.82
891	4	7.51293	7.60156	157.222
892	4	9.91892	4.0331	157.309
893	4	0.398225	6.17922	157.418
894	4	2.18129	2.02426	157.461
895	4	5.7247	3.57601	157.72
896	4	9.87152	8.21224	157.726
897	4	2.66862	10.5432	157.807
898	4	4.31903	5.59088	158.094
899	4	5.02012	10.5465	158.548
900	4	6.12293	6.79265	159.146
901	4	2.09093	5.46278	159.149
902	4	8.39242	1.29277	159.207
903	4	6.01597	1.83272	159.338
904	4	1.51471	3.08144	159.59
905	4	9.86645	3.27099	159.606
906	4	1.63626	10.0209	160.037
907	4	10.3402	8.83488	160.052
908	4	5.2493	8.80917	160.168
909	4	8.84592	10.4877	160.951
910	4	6.77743	5.36617	161.109
911	4	1.9255	6.56228	161.314
912	4	5.51919	3.15429	161.316
913	4	3.15694	8.66154	161.363
914	4	1.34677	1.17361	161.409
915	4	9.12961	4.77654	161.44
916	4	3.09382	3.22212	161.718
917	4	10.4267	6.98537	161.751
918	4	6.90677	9.29517	161.834
919	4	10.0329	0.918675	162.708
920	4	6.60316	7.06237	162.924
921	4	6.55035	2.15939	163.276
922	4	2.60251	5.26903	163.277
923	4	8.86865	3.04018	163.315
924	4	2.07462	0.422325	163.675
925	4	6.11019	10.595	163.675
926	4	3.84834	9.5372	163.675
927	4	4.38589	6.88357	164.086
928	4	10.3423	7.83426	164.145
929	4	2.91423	2.72945	164.291
930	4	10.6971	10.3305	164.745
931	4	8.02452	7.48996	164.885
932	4	5.20223	2.98273	165.077
933	4	1.11685	6.18475	165.097
934	4	8.99779	3.76531	165.707
935	4	5.50625	5.31398	165.738
936	4	7.02979	9.59026	165.753
937	4	3.28917	9.5523	166.14
938	4	3.05315	7.12405	166.291
939	4	1.89123	2.52904	166.501
940	4	0.32088	4.38289	166.517
941	4	7.82678	5.76688	166.596
942	4	8.97145	10.669	166.661
943	4	1.3757	0.108249	166.677
944	4	8.06263	2.02225	167.101
945	4	5.59604	1.72977	167.141
946	4	5.21199	10.183	167.429
947	4	4.25565	5.48637	167.912
948	4	3.69386	3.06098	168.022
949	4	9.1431	6.96606	168.562
950	4	0.20917	5.33414	168.771
951	4	9.37757	9.48735	168.819
952	4	6.65585	5.14511	168.923
953	4	0.774646	10.3466	168.954
954	4	8.02231	3.04098	169.27
955	4	2.41578	6.22382	169.483
956	4	4.50236	9.79537	169.832
957	4	2.31212	8.65185	169.931
958	4	10.2686	3.47943	170.189
959	4	3.05123	2.56685	170.297
960	4	0.862061	1.45213	170.51
961	4	7.6821	6.81966	170.652
962	4	8.08803	10.2591	170.874
963	4	6.99574	1.59865	170.914
964	4	6.21682	8.7175	171.17
965	4	4.6139	1.07559	171.26
966	4	3.46391	4.79023	171.266
967	4	6.01162	4.92814	171.537
968	4	1.18774	8.43014	172.102
969	4	9.76652	6.91768	172.161
970	4	9.82011	4.4307	172.392
971	4	0.645982	10.7999	172.584
972	4	7.68697	3.16298	172.75
973	4	9.18681	10.2386	173.071
974	4	5.24272	8.64491	173.421
975	4	2.72733	5.21015	173.545
976	4	2.89541	7.66048	173.721
977	4	4.04956	1.56029	173.746
978	4	7.83848	1.0486	174.163
979	4	0.534191	4.39343	174.224
980	4	6.4285	4.85823	174.242
981	4	8.98802	8.04288	174.243
982	4	1.90401	0.721411	174.535
983	4	5.67366	10.8402	174.567
984	4	6.68908	7.26228	174.78
985	4	4.28535	3.84971	174.825
986	4	0.482118	2.39412	175.565
987	4	2.07575	8.03952	175.986
988	4	8.95095	2.05308	176.026
989	4	8.03681	4.3209	176.079
990	4	10.5338	7.61012	176.133
991	4	10.3318	5.21631	176.384
992	4	2.65258	10.3261	176.556
993	4	5.14247	10.151	176.839
994	4	5.78623	7.76725	177.048
995	4	3.52303	4.23891	177.18
996	4	3.52658	6.74927	177.521
997	4	1.47017	2.9852	177.693
998	4	7.04407	4.88529	178.202
999	4	8.51941	1.36066	178.291